VARIABLES = X,Y,Z,PERMEABILITY
ZONE T = DEFAULT, N = 3169, E = 3168, F = FEPOINT, ET = TRIANGLE
1.030610152128e-03 0.000000000000e+00 0.000000000000e+00 1.965851581488e-05
1.010807267042e-03 2.010620664518e-04 0.000000000000e+00 1.965845426284e-05
9.521596255497e-04 3.943974304468e-04 0.000000000000e+00 1.965834948762e-05
8.569210236252e-04 5.725763223703e-04 0.000000000000e+00 1.965820551920e-05
7.287514273297e-04 7.287514273297e-04 0.000000000000e+00 1.965802789395e-05
5.725763223703e-04 8.569210236252e-04 0.000000000000e+00 1.965782344134e-05
3.943974304468e-04 9.521596255497e-04 0.000000000000e+00 1.965760002094e-05
2.010620664518e-04 1.010807267042e-03 0.000000000000e+00 1.965736621999e-05
6.310667119864e-20 1.030610152128e-03 0.000000000000e+00 1.965713102318e-05
-2.010620664518e-04 1.010807267042e-03 0.000000000000e+00 1.965690346744e-05
-3.943974304468e-04 9.521596255497e-04 0.000000000000e+00 1.965669229486e-05
-5.725763223703e-04 8.569210236252e-04 0.000000000000e+00 1.965650561714e-05
-7.287514273297e-04 7.287514273297e-04 0.000000000000e+00 1.965635060445e-05
-8.569210236252e-04 5.725763223703e-04 0.000000000000e+00 1.965623321042e-05
-9.521596255497e-04 3.943974304468e-04 0.000000000000e+00 1.965615794387e-05
-1.010807267042e-03 2.010620664518e-04 0.000000000000e+00 1.965612769593e-05
-1.030610152128e-03 1.262133423973e-19 0.000000000000e+00 1.965614362916e-05
-1.010807267042e-03 -2.010620664518e-04 0.000000000000e+00 1.965620513279e-05
-9.521596255497e-04 -3.943974304468e-04 0.000000000000e+00 1.965630984605e-05
-8.569210236252e-04 -5.725763223703e-04 0.000000000000e+00 1.965645374838e-05
-7.287514273297e-04 -7.287514273297e-04 0.000000000000e+00 1.965663131345e-05
-5.725763223703e-04 -8.569210236252e-04 0.000000000000e+00 1.965683572098e-05
-3.943974304468e-04 -9.521596255497e-04 0.000000000000e+00 1.965705911825e-05
-2.010620664518e-04 -1.010807267042e-03 0.000000000000e+00 1.965729292154e-05
-1.893200135959e-19 -1.030610152128e-03 0.000000000000e+00 1.965752814581e-05
2.010620664518e-04 -1.010807267042e-03 0.000000000000e+00 1.965775574995e-05
3.943974304468e-04 -9.521596255497e-04 0.000000000000e+00 1.965796698450e-05
5.725763223703e-04 -8.569210236252e-04 0.000000000000e+00 1.965815372831e-05
7.287514273297e-04 -7.287514273297e-04 0.000000000000e+00 1.965830880117e-05
8.569210236252e-04 -5.725763223703e-04 0.000000000000e+00 1.965842624028e-05
9.521596255497e-04 -3.943974304468e-04 0.000000000000e+00 1.965850152996e-05
1.010807267042e-03 -2.010620664518e-04 0.000000000000e+00 1.965853177556e-05
8.244881217027e-03 0.000000000000e+00 0.000000000000e+00 1.966214019060e-05
8.086458136333e-03 1.608496531615e-03 0.000000000000e+00 1.966189040987e-05
7.617277004398e-03 3.155179443574e-03 0.000000000000e+00 1.966146532339e-05
6.855368189002e-03 4.580610578963e-03 0.000000000000e+00 1.966088131435e-05
5.830011418637e-03 5.830011418637e-03 0.000000000000e+00 1.966016087642e-05
4.580610578963e-03 6.855368189002e-03 0.000000000000e+00 1.965933174161e-05
3.155179443574e-03 7.617277004398e-03 0.000000000000e+00 1.965842580753e-05
1.608496531615e-03 8.086458136333e-03 0.000000000000e+00 1.965747790638e-05
5.048533695891e-19 8.244881217027e-03 0.000000000000e+00 1.965652446365e-05
-1.608496531615e-03 8.086458136333e-03 0.000000000000e+00 1.965560209860e-05
-3.155179443574e-03 7.617277004398e-03 0.000000000000e+00 1.965474622022e-05
-4.580610578963e-03 6.855368189002e-03 0.000000000000e+00 1.965398967211e-05
-5.830011418637e-03 5.830011418637e-03 0.000000000000e+00 1.965336147749e-05
-6.855368189002e-03 4.580610578963e-03 0.000000000000e+00 1.965288573158e-05
-7.617277004398e-03 3.155179443574e-03 0.000000000000e+00 1.965258068259e-05
-8.086458136333e-03 1.608496531615e-03 0.000000000000e+00 1.965245803573e-05
-8.244881217027e-03 1.009706739178e-18 0.000000000000e+00 1.965252250601e-05
-8.086458136333e-03 -1.608496531615e-03 0.000000000000e+00 1.965277163686e-05
-7.617277004398e-03 -3.155179443574e-03 0.000000000000e+00 1.965319589127e-05
-6.855368189002e-03 -4.580610578963e-03 0.000000000000e+00 1.965377901271e-05
-5.830011418637e-03 -5.830011418637e-03 0.000000000000e+00 1.965449864264e-05
-4.580610578963e-03 -6.855368189002e-03 0.000000000000e+00 1.965532717208e-05
-3.155179443574e-03 -7.617277004398e-03 0.000000000000e+00 1.965623279556e-05
-1.608496531615e-03 -8.086458136333e-03 0.000000000000e+00 1.965718072819e-05
-1.514560108767e-18 -8.244881217027e-03 0.000000000000e+00 1.965813453966e-05
1.608496531615e-03 -8.086458136333e-03 0.000000000000e+00 1.965905755459e-05
3.155179443574e-03 -7.617277004398e-03 0.000000000000e+00 1.965991426504e-05
4.580610578963e-03 -6.855368189002e-03 0.000000000000e+00 1.966067170076e-05
5.830011418637e-03 -5.830011418637e-03 0.000000000000e+00 1.966130070337e-05
6.855368189002e-03 -4.580610578963e-03 0.000000000000e+00 1.966177705465e-05
7.617277004398e-03 -3.155179443574e-03 0.000000000000e+00 1.966208241424e-05
8.086458136333e-03 -1.608496531615e-03 0.000000000000e+00 1.966220502963e-05
2.782647410747e-02 0.000000000000e+00 0.000000000000e+00 1.967046877129e-05
2.729179621012e-02 5.428675794199e-03 0.000000000000e+00 1.966978561494e-05
2.570830988984e-02 1.064873062206e-02 0.000000000000e+00 1.966862353879e-05
2.313686763788e-02 1.545956070400e-02 0.000000000000e+00 1.966702751879e-05
1.967628853790e-02 1.967628853790e-02 0.000000000000e+00 1.966505922814e-05
1.545956070400e-02 2.313686763788e-02 0.000000000000e+00 1.966279461556e-05
1.064873062206e-02 2.570830988984e-02 0.000000000000e+00 1.966032093970e-05
5.428675794199e-03 2.729179621012e-02 0.000000000000e+00 1.965773338071e-05
1.703880122363e-18 2.782647410747e-02 0.000000000000e+00 1.965513136463e-05
-5.428675794199e-03 2.729179621012e-02 0.000000000000e+00 1.965261474444e-05
-1.064873062206e-02 2.570830988984e-02 0.000000000000e+00 1.965027998431e-05
-1.545956070400e-02 2.313686763788e-02 0.000000000000e+00 1.964821649028e-05
-1.967628853790e-02 1.967628853790e-02 0.000000000000e+00 1.964650322280e-05
-2.313686763788e-02 1.545956070400e-02 0.000000000000e+00 1.964520571373e-05
-2.570830988984e-02 1.064873062206e-02 0.000000000000e+00 1.964437359482e-05
-2.729179621012e-02 5.428675794199e-03 0.000000000000e+00 1.964403872552e-05
-2.782647410747e-02 3.407760244726e-18 0.000000000000e+00 1.964421398655e-05
-2.729179621012e-02 -5.428675794199e-03 0.000000000000e+00 1.964489278320e-05
-2.570830988984e-02 -1.064873062206e-02 0.000000000000e+00 1.964604927737e-05
-2.313686763788e-02 -1.545956070400e-02 0.000000000000e+00 1.964763934294e-05
-1.967628853790e-02 -1.967628853790e-02 0.000000000000e+00 1.964960221320e-05
-1.545956070400e-02 -2.313686763788e-02 0.000000000000e+00 1.965186276464e-05
-1.064873062206e-02 -2.570830988984e-02 0.000000000000e+00 1.965433435689e-05
-5.428675794199e-03 -2.729179621012e-02 0.000000000000e+00 1.965692212699e-05
-5.111640367090e-18 -2.782647410747e-02 0.000000000000e+00 1.965952661678e-05
5.428675794199e-03 -2.729179621012e-02 0.000000000000e+00 1.966204759667e-05
1.064873062206e-02 -2.570830988984e-02 0.000000000000e+00 1.966438793877e-05
1.545956070400e-02 -2.313686763788e-02 0.000000000000e+00 1.966645738723e-05
1.967628853790e-02 -1.967628853790e-02 0.000000000000e+00 1.966817607511e-05
2.313686763788e-02 -1.545956070400e-02 0.000000000000e+00 1.966947764532e-05
2.570830988984e-02 -1.064873062206e-02 0.000000000000e+00 1.967031184784e-05
2.729179621012e-02 -5.428675794199e-03 0.000000000000e+00 1.967064650603e-05
6.595904973622e-02 0.000000000000e+00 0.000000000000e+00 1.968585029301e-05
6.469166509066e-02 1.286797225292e-02 0.000000000000e+00 1.968436382965e-05
6.093821603518e-02 2.524143554859e-02 0.000000000000e+00 1.968183738329e-05
5.484294551202e-02 3.664488463170e-02 0.000000000000e+00 1.967836945662e-05
4.664009134910e-02 4.664009134910e-02 0.000000000000e+00 1.967409482546e-05
3.664488463170e-02 5.484294551202e-02 0.000000000000e+00 1.966917912995e-05
2.524143554859e-02 6.093821603518e-02 0.000000000000e+00 1.966381230074e-05
1.286797225292e-02 6.469166509066e-02 0.000000000000e+00 1.965820110479e-05
4.038826956713e-18 6.595904973622e-02 0.000000000000e+00 1.965256112040e-05
-1.286797225292e-02 6.469166509066e-02 0.000000000000e+00 1.964710846200e-05
-2.524143554859e-02 6.093821603518e-02 0.000000000000e+00 1.964205157089e-05
-3.664488463170e-02 5.484294551202e-02 0.000000000000e+00 1.963758337265e-05
-4.664009134910e-02 4.664009134910e-02 0.000000000000e+00 1.963387407724e-05
-5.484294551202e-02 3.664488463170e-02 0.000000000000e+00 1.963106486567e-05
-6.093821603518e-02 2.524143554859e-02 0.000000000000e+00 1.962926267174e-05
-6.469166509066e-02 1.286797225292e-02 0.000000000000e+00 1.962853622774e-05
-6.595904973622e-02 8.077653913426e-18 0.000000000000e+00 1.962891350287e-05
-6.469166509066e-02 -1.286797225292e-02 0.000000000000e+00 1.963038062056e-05
-6.093821603518e-02 -2.524143554859e-02 0.000000000000e+00 1.963288229758e-05
-5.484294551202e-02 -3.664488463170e-02 0.000000000000e+00 1.963632380217e-05
-4.664009134910e-02 -4.664009134910e-02 0.000000000000e+00 1.964057438102e-05
-3.664488463170e-02 -5.484294551202e-02 0.000000000000e+00 1.964547205573e-05
-2.524143554859e-02 -6.093821603518e-02 0.000000000000e+00 1.965082963913e-05
-1.286797225292e-02 -6.469166509066e-02 0.000000000000e+00 1.965644177187e-05
-1.211648087014e-17 -6.595904973622e-02 0.000000000000e+00 1.966209273301e-05
1.286797225292e-02 -6.469166509066e-02 0.000000000000e+00 1.966756473704e-05
2.524143554859e-02 -6.093821603518e-02 0.000000000000e+00 1.967264639747e-05
3.664488463170e-02 -5.484294551202e-02 0.000000000000e+00 1.967714101781e-05
4.664009134910e-02 -4.664009134910e-02 0.000000000000e+00 1.968087436559e-05
5.484294551202e-02 -3.664488463170e-02 0.000000000000e+00 1.968370159801e-05
6.093821603518e-02 -2.524143554859e-02 0.000000000000e+00 1.968551303776e-05
6.469166509066e-02 -1.286797225292e-02 0.000000000000e+00 1.968623854495e-05
1.288262690160e-01 0.000000000000e+00 0.000000000000e+00 1.971068432896e-05
1.263509083802e-01 2.513275830648e-02 0.000000000000e+00 1.970789304739e-05
1.190199531937e-01 4.929967880585e-02 0.000000000000e+00 1.970315502588e-05
1.071151279532e-01 7.157204029629e-02 0.000000000000e+00 1.969665711816e-05
9.109392841621e-02 9.109392841621e-02 0.000000000000e+00 1.968865411793e-05
7.157204029629e-02 1.071151279532e-01 0.000000000000e+00 1.967945819155e-05
4.929967880585e-02 1.190199531937e-01 0.000000000000e+00 1.966942617926e-05
2.513275830648e-02 1.263509083802e-01 0.000000000000e+00 1.965894535993e-05
7.888333899830e-18 1.288262690160e-01 0.000000000000e+00 1.964841830488e-05
-2.513275830648e-02 1.263509083802e-01 0.000000000000e+00 1.963824744168e-05
-4.929967880585e-02 1.190199531937e-01 0.000000000000e+00 1.962881991466e-05
-7.157204029629e-02 1.071151279532e-01 0.000000000000e+00 1.962049327331e-05
-9.109392841621e-02 9.109392841621e-02 0.000000000000e+00 1.961358245252e-05
-1.071151279532e-01 7.157204029629e-02 0.000000000000e+00 1.960834843562e-05
-1.190199531937e-01 4.929967880585e-02 0.000000000000e+00 1.960498892061e-05
-1.263509083802e-01 2.513275830648e-02 0.000000000000e+00 1.960363124370e-05
-1.288262690160e-01 1.577666779966e-17 0.000000000000e+00 1.960432775373e-05
-1.263509083802e-01 -2.513275830648e-02 0.000000000000e+00 1.960705377505e-05
-1.190199531937e-01 -4.929967880585e-02 0.000000000000e+00 1.961170824040e-05
-1.071151279532e-01 -7.157204029629e-02 0.000000000000e+00 1.961811701677e-05
-9.109392841621e-02 -9.109392841621e-02 0.000000000000e+00 1.962603887984e-05
-7.157204029629e-02 -1.071151279532e-01 0.000000000000e+00 1.963517401554e-05
-4.929967880585e-02 -1.190199531937e-01 0.000000000000e+00 1.964517483833e-05
-2.513275830648e-02 -1.263509083802e-01 0.000000000000e+00 1.965565881761e-05
-2.366500169949e-17 -1.288262690160e-01 0.000000000000e+00 1.966622290105e-05
2.513275830648e-02 -1.263509083802e-01 0.000000000000e+00 1.967645902395e-05
4.929967880585e-02 -1.190199531937e-01 0.000000000000e+00 1.968597010693e-05
7.157204029629e-02 -1.071151279532e-01 0.000000000000e+00 1.969438587987e-05
9.109392841621e-02 -9.109392841621e-02 0.000000000000e+00 1.970137783838e-05
1.071151279532e-01 -7.157204029629e-02 0.000000000000e+00 1.970667264651e-05
1.190199531937e-01 -4.929967880585e-02 0.000000000000e+00 1.971006335123e-05
1.263509083802e-01 -2.513275830648e-02 0.000000000000e+00 1.971141786795e-05
2.226117928597e-01 0.000000000000e+00 0.000000000000e+00 1.974742299725e-05
2.183343696810e-01 4.342940635359e-02 0.000000000000e+00 1.974268390461e-05
2.056664791187e-01 8.518984497651e-02 0.000000000000e+00 1.973465465429e-05
1.850949411031e-01 1.236764856320e-01 0.000000000000e+00 1.972365711462e-05
1.574103083032e-01 1.574103083032e-01 0.000000000000e+00 1.971012806612e-05
1.236764856320e-01 1.850949411031e-01 0.000000000000e+00 1.969460025303e-05
8.518984497651e-02 2.056664791187e-01 0.000000000000e+00 1.967767995847e-05
4.342940635359e-02 2.183343696810e-01 0.000000000000e+00 1.966002226162e-05
1.363104097891e-17 2.226117928597e-01 0.000000000000e+00 1.964230514355e-05
-4.342940635359e-02 2.183343696810e-01 0.000000000000e+00 1.962520354066e-05
-8.518984497651e-02 2.056664791187e-01 0.000000000000e+00 1.960936432049e-05
-1.236764856320e-01 1.850949411031e-01 0.000000000000e+00 1.959538299878e-05
-1.574103083032e-01 1.574103083032e-01 0.000000000000e+00 1.958378285191e-05
-1.850949411031e-01 1.236764856320e-01 0.000000000000e+00 1.957499692612e-05
-2.056664791187e-01 8.518984497651e-02 0.000000000000e+00 1.956935331764e-05
-2.183343696810e-01 4.342940635359e-02 0.000000000000e+00 1.956706400275e-05
-2.226117928597e-01 2.726208195781e-17 0.000000000000e+00 1.956821743268e-05
-2.183343696810e-01 -4.342940635359e-02 0.000000000000e+00 1.957277506702e-05
-2.056664791187e-01 -8.518984497651e-02 0.000000000000e+00 1.958057198752e-05
-1.850949411031e-01 -1.236764856320e-01 0.000000000000e+00 1.959132169630e-05
-1.574103083032e-01 -1.574103083032e-01 0.000000000000e+00 1.960462514245e-05
-1.236764856320e-01 -1.850949411031e-01 0.000000000000e+00 1.961998392676e-05
-8.518984497651e-02 -2.056664791187e-01 0.000000000000e+00 1.963681749833e-05
-4.342940635359e-02 -2.183343696810e-01 0.000000000000e+00 1.965448398044e-05
-4.089312293672e-17 -2.226117928597e-01 0.000000000000e+00 1.967230405495e-05
4.342940635359e-02 -2.183343696810e-01 0.000000000000e+00 1.968958711216e-05
8.518984497651e-02 -2.056664791187e-01 0.000000000000e+00 1.970565866061e-05
1.236764856320e-01 -1.850949411031e-01 0.000000000000e+00 1.971988781503e-05
1.574103083032e-01 -1.574103083032e-01 0.000000000000e+00 1.973171356835e-05
1.850949411031e-01 -1.236764856320e-01 0.000000000000e+00 1.974066852692e-05
2.056664791187e-01 -8.518984497651e-02 0.000000000000e+00 1.974639885992e-05
2.183343696810e-01 -4.342940635359e-02 0.000000000000e+00 1.974867938773e-05
3.534992821800e-01 0.000000000000e+00 0.000000000000e+00 1.979860044094e-05
3.467068925953e-01 6.896428879297e-02 0.000000000000e+00 1.979111368027e-05
3.265907515636e-01 1.352783186432e-01 0.000000000000e+00 1.977846150191e-05
2.939239111035e-01 1.963936785730e-01 0.000000000000e+00 1.976116232616e-05
2.499617395741e-01 2.499617395741e-01 0.000000000000e+00 1.973991513509e-05
1.963936785730e-01 2.939239111035e-01 0.000000000000e+00 1.971556737445e-05
1.352783186432e-01 3.265907515636e-01 0.000000000000e+00 1.968907768449e-05
6.896428879297e-02 3.467068925953e-01 0.000000000000e+00 1.966147560543e-05
2.164558822113e-17 3.534992821800e-01 0.000000000000e+00 1.963382031731e-05
-6.896428879297e-02 3.467068925953e-01 0.000000000000e+00 1.960716023643e-05
-1.352783186432e-01 3.265907515636e-01 0.000000000000e+00 1.958249495389e-05
-1.963936785730e-01 2.939239111035e-01 0.000000000000e+00 1.956074062581e-05
-2.499617395741e-01 2.499617395741e-01 0.000000000000e+00 1.954269956408e-05
-2.939239111035e-01 1.963936785730e-01 0.000000000000e+00 1.952903447624e-05
-3.265907515636e-01 1.352783186432e-01 0.000000000000e+00 1.952024759139e-05
-3.467068925953e-01 6.896428879297e-02 0.000000000000e+00 1.951666479665e-05
-3.534992821800e-01 4.329117644227e-17 0.000000000000e+00 1.951842488764e-05
-3.467068925953e-01 -6.896428879297e-02 0.000000000000e+00 1.952547408268e-05
-3.265907515636e-01 -1.352783186432e-01 0.000000000000e+00 1.953756602906e-05
-2.939239111035e-01 -1.963936785730e-01 0.000000000000e+00 1.955426759859e-05
-2.499617395741e-01 -2.499617395741e-01 0.000000000000e+00 1.957497078713e-05
-1.963936785730e-01 -2.939239111035e-01 0.000000000000e+00 1.959891096340e-05
-1.352783186432e-01 -3.265907515636e-01 0.000000000000e+00 1.962519153333e-05
-6.896428879297e-02 -3.467068925953e-01 0.000000000000e+00 1.965281479149e-05
-6.493676466340e-17 -3.534992821800e-01 0.000000000000e+00 1.968071833569e-05
6.896428879297e-02 -3.467068925953e-01 0.000000000000e+00 1.970781595988e-05
1.352783186432e-01 -3.265907515636e-01 0.000000000000e+00 1.973304146579e-05
1.963936785730e-01 -2.939239111035e-01 0.000000000000e+00 1.975539341025e-05
2.499617395741e-01 -2.499617395741e-01 0.000000000000e+00 1.977397849748e-05
2.939239111035e-01 -1.963936785730e-01 0.000000000000e+00 1.978805119200e-05
3.265907515636e-01 -1.352783186432e-01 0.000000000000e+00 1.979704720548e-05
3.467068925953e-01 -6.896428879297e-02 0.000000000000e+00 1.980060881097e-05
5.276723978897e-01 0.000000000000e+00 0.000000000000e+00 1.986686968192e-05
5.175333207253e-01 1.029437780233e-01 0.000000000000e+00 1.985565627615e-05
4.875057282815e-01 2.019314843888e-01 0.000000000000e+00 1.983676912134e-05
4.387435640961e-01 2.931590770536e-01 0.000000000000e+00 1.981100401171e-05
3.731207307928e-01 3.731207307928e-01 0.000000000000e+00 1.977942519294e-05
2.931590770536e-01 4.387435640961e-01 0.000000000000e+00 1.974331308089e-05
2.019314843888e-01 4.875057282815e-01 0.000000000000e+00 1.970410489863e-05
1.029437780233e-01 5.175333207253e-01 0.000000000000e+00 1.966333205072e-05
3.231061565370e-17 5.276723978897e-01 0.000000000000e+00 1.962255771991e-05
-1.029437780233e-01 5.175333207253e-01 0.000000000000e+00 1.958331755699e-05
-2.019314843888e-01 4.875057282815e-01 0.000000000000e+00 1.954706556023e-05
-2.931590770536e-01 4.387435640961e-01 0.000000000000e+00 1.951512643691e-05
-3.731207307928e-01 3.731207307928e-01 0.000000000000e+00 1.948865501789e-05
-4.387435640961e-01 2.931590770536e-01 0.000000000000e+00 1.946860274680e-05
-4.875057282815e-01 2.019314843888e-01 0.000000000000e+00 1.945569093665e-05
-5.175333207253e-01 1.029437780233e-01 0.000000000000e+00 1.945039039369e-05
-5.276723978897e-01 6.462123130741e-17 0.000000000000e+00 1.945290712591e-05
-5.175333207253e-01 -1.029437780233e-01 0.000000000000e+00 1.946317412750e-05
-4.875057282815e-01 -2.019314843888e-01 0.000000000000e+00 1.948084958334e-05
-4.387435640961e-01 -2.931590770536e-01 0.000000000000e+00 1.950532217786e-05
-3.731207307928e-01 -3.731207307928e-01 0.000000000000e+00 1.953572442908e-05
-2.931590770536e-01 -4.387435640961e-01 0.000000000000e+00 1.957095502028e-05
-2.019314843888e-01 -4.875057282815e-01 0.000000000000e+00 1.960971090994e-05
-1.029437780233e-01 -5.175333207253e-01 0.000000000000e+00 1.965052954249e-05
-9.693184696111e-17 -5.276723978897e-01 0.000000000000e+00 1.969184077488e-05
1.029437780233e-01 -5.175333207253e-01 0.000000000000e+00 1.973202724056e-05
2.019314843888e-01 -4.875057282815e-01 0.000000000000e+00 1.976949089720e-05
2.931590770536e-01 -4.387435640961e-01 0.000000000000e+00 1.980272258179e-05
3.731207307928e-01 -3.731207307928e-01 0.000000000000e+00 1.983037067271e-05
4.387435640961e-01 -2.931590770536e-01 0.000000000000e+00 1.985130456608e-05
4.875057282815e-01 -2.019314843888e-01 0.000000000000e+00 1.986466870791e-05
5.175333207253e-01 -1.029437780233e-01 0.000000000000e+00 1.986992342008e-05
7.513148009016e-01 0.000000000000e+00 0.000000000000e+00 1.995504686835e-05
7.368784976734e-01 1.465742464434e-01 0.000000000000e+00 1.993891808020e-05
6.941243670258e-01 2.875157267957e-01 0.000000000000e+00 1.991186470799e-05
6.246954262228e-01 4.174081390080e-01 0.000000000000e+00 1.987506614451e-05
5.312597905233e-01 5.312597905233e-01 0.000000000000e+00 1.983008411736e-05
4.174081390080e-01 6.246954262228e-01 0.000000000000e+00 1.977877992864e-05
2.875157267957e-01 6.941243670258e-01 0.000000000000e+00 1.972322279507e-05
1.465742464434e-01 7.368784976734e-01 0.000000000000e+00 1.966559584728e-05
4.600476330381e-17 7.513148009016e-01 0.000000000000e+00 1.960810547144e-05
-1.465742464434e-01 7.368784976734e-01 0.000000000000e+00 1.955289831537e-05
-2.875157267957e-01 6.941243670258e-01 0.000000000000e+00 1.950198869259e-05
-4.174081390080e-01 6.246954262228e-01 0.000000000000e+00 1.945719755268e-05
-5.312597905233e-01 5.312597905233e-01 0.000000000000e+00 1.942010285880e-05
-6.246954262228e-01 4.174081390080e-01 0.000000000000e+00 1.939200027333e-05
-6.941243670258e-01 2.875157267957e-01 0.000000000000e+00 1.937387258020e-05
-7.368784976734e-01 1.465742464434e-01 0.000000000000e+00 1.936636627586e-05
-7.513148009016e-01 9.200952660761e-17 0.000000000000e+00 1.936977418406e-05
-7.368784976734e-01 -1.465742464434e-01 0.000000000000e+00 1.938402368335e-05
-6.941243670258e-01 -2.875157267957e-01 0.000000000000e+00 1.940867103271e-05
-6.246954262228e-01 -4.174081390080e-01 0.000000000000e+00 1.944290316719e-05
-5.312597905233e-01 -5.312597905233e-01 0.000000000000e+00 1.948554903614e-05
-4.174081390080e-01 -6.246954262228e-01 0.000000000000e+00 1.953510290909e-05
-2.875157267957e-01 -6.941243670258e-01 0.000000000000e+00 1.958976195420e-05
-1.465742464434e-01 -7.368784976734e-01 0.000000000000e+00 1.964747973396e-05
-1.380142899114e-16 -7.513148009016e-01 0.000000000000e+00 1.970603607247e-05
1.465742464434e-01 -7.368784976734e-01 0.000000000000e+00 1.976312212603e-05
2.875157267957e-01 -6.941243670258e-01 0.000000000000e+00 1.981643762084e-05
4.174081390080e-01 -6.246954262228e-01 0.000000000000e+00 1.986379536783e-05
5.312597905233e-01 -5.312597905233e-01 0.000000000000e+00 1.990322662256e-05
6.246954262228e-01 -4.174081390080e-01 0.000000000000e+00 1.993307991518e-05
6.941243670258e-01 -2.875157267957e-01 0.000000000000e+00 1.995210584761e-05
7.368784976734e-01 -1.465742464434e-01 0.000000000000e+00 1.995952114189e-05
1.030610152128e+00 0.000000000000e+00 0.000000000000e+00 2.006616379759e-05
1.010807267042e+00 2.010620664518e-01 0.000000000000e+00 2.004368038328e-05
9.521596255497e-01 3.943974304468e-01 0.000000000000e+00 2.000615893012e-05
8.569210236252e-01 5.725763223703e-01 0.000000000000e+00 1.995530227320e-05
7.287514273297e-01 7.287514273297e-01 0.000000000000e+00 1.989333934087e-05
5.725763223703e-01 8.569210236252e-01 0.000000000000e+00 1.982289701987e-05
3.943974304468e-01 9.521596255497e-01 0.000000000000e+00 1.974686198995e-05
2.010620664518e-01 1.010807267042e+00 0.000000000000e+00 1.966824341918e-05
6.310667119864e-17 1.030610152128e+00 0.000000000000e+00 1.959004546370e-05
-2.010620664518e-01 1.010807267042e+00 0.000000000000e+00 1.951515579452e-05
-3.943974304468e-01 9.521596255497e-01 0.000000000000e+00 1.944625337775e-05
-5.725763223703e-01 8.569210236252e-01 0.000000000000e+00 1.938573592310e-05
-7.287514273297e-01 7.287514273297e-01 0.000000000000e+00 1.933566514399e-05
-8.569210236252e-01 5.725763223703e-01 0.000000000000e+00 1.929772647607e-05
-9.521596255497e-01 3.943974304468e-01 0.000000000000e+00 1.927319927899e-05
-1.010807267042e+00 2.010620664518e-01 0.000000000000e+00 1.926293378731e-05
-1.030610152128e+00 1.262133423973e-16 0.000000000000e+00 1.926733206391e-05
-1.010807267042e+00 -2.010620664518e-01 0.000000000000e+00 1.928633175069e-05
-9.521596255497e-01 -3.943974304468e-01 0.000000000000e+00 1.931939325134e-05
-8.569210236252e-01 -5.725763223703e-01 0.000000000000e+00 1.936549282857e-05
-7.287514273297e-01 -7.287514273297e-01 0.000000000000e+00 1.942312564580e-05
-5.725763223703e-01 -8.569210236252e-01 0.000000000000e+00 1.949032374205e-05
-3.943974304468e-01 -9.521596255497e-01 0.000000000000e+00 1.956469405466e-05
-2.010620664518e-01 -1.010807267042e+00 0.000000000000e+00 1.964348074321e-05
-1.893200135959e-16 -1.030610152128e+00 0.000000000000e+00 1.972365418754e-05
2.010620664518e-01 -1.010807267042e+00 0.000000000000e+00 1.980202626138e-05
3.943974304468e-01 -9.521596255497e-01 0.000000000000e+00 1.987538812081e-05
5.725763223703e-01 -8.569210236252e-01 0.000000000000e+00 1.994066325702e-05
7.287514273297e-01 -7.287514273297e-01 0.000000000000e+00 1.999506551222e-05
8.569210236252e-01 -5.725763223703e-01 0.000000000000e+00 2.003624972778e-05
9.521596255497e-01 -3.943974304468e-01 0.000000000000e+00 2.006244215200e-05
1.010807267042e+00 -2.010620664518e-01 0.000000000000e+00 2.007253892405e-05
1.371742112483e+00 0.000000000000e+00 0.000000000000e+00 2.020352980235e-05
1.345384472432e+00 2.676136104474e-01 0.000000000000e+00 2.017294915238e-05
1.267324461607e+00 5.249429799247e-01 0.000000000000e+00 2.012222078789e-05
1.140561882445e+00 7.620990850749e-01 0.000000000000e+00 2.005375523727e-05
9.699681497758e-01 9.699681497758e-01 0.000000000000e+00 1.997066659224e-05
7.620990850749e-01 1.140561882445e+00 0.000000000000e+00 1.987657775679e-05
5.249429799247e-01 1.267324461607e+00 0.000000000000e+00 1.977541627283e-05
2.676136104474e-01 1.345384472432e+00 0.000000000000e+00 1.967121822749e-05
8.399497936539e-17 1.371742112483e+00 0.000000000000e+00 1.956795381900e-05
-2.676136104474e-01 1.345384472432e+00 0.000000000000e+00 1.946938310341e-05
-5.249429799247e-01 1.267324461607e+00 0.000000000000e+00 1.937894517372e-05
-7.620990850749e-01 1.140561882445e+00 0.000000000000e+00 1.929967930284e-05
-9.699681497758e-01 9.699681497758e-01 0.000000000000e+00 1.923417295865e-05
-1.140561882445e+00 7.620990850749e-01 0.000000000000e+00 1.918452937889e-05
-1.267324461607e+00 5.249429799247e-01 0.000000000000e+00 1.915234667371e-05
-1.345384472432e+00 2.676136104474e-01 0.000000000000e+00 1.913870112948e-05
-1.371742112483e+00 1.679899587308e-16 0.000000000000e+00 1.914412930971e-05
-1.345384472432e+00 -2.676136104474e-01 0.000000000000e+00 1.916860637374e-05
-1.267324461607e+00 -5.249429799247e-01 0.000000000000e+00 1.921152136527e-05
-1.140561882445e+00 -7.620990850749e-01 0.000000000000e+00 1.927165360576e-05
-9.699681497758e-01 -9.699681497758e-01 0.000000000000e+00 1.934715727890e-05
-7.620990850749e-01 -1.140561882445e+00 0.000000000000e+00 1.943556333017e-05
-5.249429799247e-01 -1.267324461607e+00 0.000000000000e+00 1.953380850138e-05
-2.676136104474e-01 -1.345384472432e+00 0.000000000000e+00 1.963830035279e-05
-2.519849380962e-16 -1.371742112483e+00 0.000000000000e+00 1.974502435191e-05
2.676136104474e-01 -1.345384472432e+00 0.000000000000e+00 1.984969464499e-05
5.249429799247e-01 -1.267324461607e+00 0.000000000000e+00 1.994794440261e-05
7.620990850749e-01 -1.140561882445e+00 0.000000000000e+00 2.003554540707e-05
9.699681497758e-01 -9.699681497758e-01 0.000000000000e+00 2.010864084690e-05
1.140561882445e+00 -7.620990850749e-01 0.000000000000e+00 2.016397121930e-05
1.267324461607e+00 -5.249429799247e-01 0.000000000000e+00 2.019907178225e-05
1.345384472432e+00 -2.676136104474e-01 0.000000000000e+00 2.021242169696e-05
1.780894342878e+00 0.000000000000e+00 0.000000000000e+00 2.037080437743e-05
1.746674957448e+00 3.474352508287e-01 0.000000000000e+00 2.033001315949e-05
1.645331832950e+00 6.815187598121e-01 0.000000000000e+00 2.026281813790e-05
1.480759528824e+00 9.894118850559e-01 0.000000000000e+00 2.017258013293e-05
1.259282466426e+00 1.259282466426e+00 0.000000000000e+00 2.006357815506e-05
9.894118850559e-01 1.480759528824e+00 0.000000000000e+00 1.994071821493e-05
6.815187598121e-01 1.645331832950e+00 0.000000000000e+00 1.980923682877e-05
3.474352508287e-01 1.746674957448e+00 0.000000000000e+00 1.967442646277e-05
1.090483278312e-16 1.780894342878e+00 0.000000000000e+00 1.954140275453e-05
-3.474352508287e-01 1.746674957448e+00 0.000000000000e+00 1.941492449031e-05
-6.815187598121e-01 1.645331832950e+00 0.000000000000e+00 1.929926857223e-05
-9.894118850559e-01 1.480759528824e+00 0.000000000000e+00 1.919815476785e-05
-1.259282466426e+00 1.259282466426e+00 0.000000000000e+00 1.911470962903e-05
-1.480759528824e+00 9.894118850559e-01 0.000000000000e+00 1.905145592087e-05
-1.645331832950e+00 6.815187598121e-01 0.000000000000e+00 1.901031323274e-05
-1.746674957448e+00 3.474352508287e-01 0.000000000000e+00 1.899259695408e-05
-1.780894342878e+00 2.180966556625e-16 0.000000000000e+00 1.899900614338e-05
-1.746674957448e+00 -3.474352508287e-01 0.000000000000e+00 1.902959553212e-05
-1.645331832950e+00 -6.815187598121e-01 0.000000000000e+00 1.908373242212e-05
-1.480759528824e+00 -9.894118850559e-01 0.000000000000e+00 1.916004490006e-05
-1.259282466426e+00 -1.259282466426e+00 0.000000000000e+00 1.925637289719e-05
-9.894118850559e-01 -1.480759528824e+00 0.000000000000e+00 1.936973743093e-05
-6.815187598121e-01 -1.645331832950e+00 0.000000000000e+00 1.949634517367e-05
-3.474352508287e-01 -1.746674957448e+00 0.000000000000e+00 1.963164470162e-05
-3.271449834937e-16 -1.780894342878e+00 0.000000000000e+00 1.977044699823e-05
3.474352508287e-01 -1.746674957448e+00 0.000000000000e+00 1.990711600953e-05
6.815187598121e-01 -1.645331832950e+00 0.000000000000e+00 2.003582578692e-05
9.894118850559e-01 -1.480759528824e+00 0.000000000000e+00 2.015087015851e-05
1.259282466426e+00 -1.259282466426e+00 0.000000000000e+00 2.024700067824e-05
1.480759528824e+00 -9.894118850559e-01 0.000000000000e+00 2.031976087489e-05
1.645331832950e+00 -6.815187598121e-01 0.000000000000e+00 2.036578147874e-05
1.746674957448e+00 -3.474352508287e-01 0.000000000000e+00 2.038300355528e-05
2.264250504226e+00 0.000000000000e+00 0.000000000000e+00 2.057208230887e-05
2.220743565690e+00 4.417333599946e-01 0.000000000000e+00 2.051851173244e-05
2.091894697333e+00 8.664911546916e-01 0.000000000000e+00 2.043096468404e-05
1.882655488905e+00 1.257950180248e+00 0.000000000000e+00 2.031407103567e-05