VARIABLES = X,Y,Z,PERMEABILITY
ZONE T = DEFAULT, N = 3169, E = 3168, F = FEPOINT, ET = TRIANGLE
1.030610152128e-03 0.000000000000e+00 0.000000000000e+00 6.631371694169e-06
1.010807267042e-03 2.010620664518e-04 0.000000000000e+00 6.631367051489e-06
9.521596255497e-04 3.943974304468e-04 0.000000000000e+00 6.631359148575e-06
8.569210236252e-04 5.725763223703e-04 0.000000000000e+00 6.631348289337e-06
7.287514273297e-04 7.287514273297e-04 0.000000000000e+00 6.631334891300e-06
5.725763223703e-04 8.569210236252e-04 0.000000000000e+00 6.631319469525e-06
3.943974304468e-04 9.521596255497e-04 0.000000000000e+00 6.631302616791e-06
2.010620664518e-04 1.010807267042e-03 0.000000000000e+00 6.631284980791e-06
6.310667119864e-20 1.030610152128e-03 0.000000000000e+00 6.631267239239e-06
-2.010620664518e-04 1.010807267042e-03 0.000000000000e+00 6.631250073823e-06
-3.943974304468e-04 9.521596255497e-04 0.000000000000e+00 6.631234144032e-06
-5.725763223703e-04 8.569210236252e-04 0.000000000000e+00 6.631220061834e-06
-7.287514273297e-04 7.287514273297e-04 0.000000000000e+00 6.631208368190e-06
-8.569210236252e-04 5.725763223703e-04 0.000000000000e+00 6.631199512297e-06
-9.521596255497e-04 3.943974304468e-04 0.000000000000e+00 6.631193834354e-06
-1.010807267042e-03 2.010620664518e-04 0.000000000000e+00 6.631191552509e-06
-1.030610152128e-03 1.262133423973e-19 0.000000000000e+00 6.631192754480e-06
-1.010807267042e-03 -2.010620664518e-04 0.000000000000e+00 6.631197394185e-06
-9.521596255497e-04 -3.943974304468e-04 0.000000000000e+00 6.631205293492e-06
-8.569210236252e-04 -5.725763223703e-04 0.000000000000e+00 6.631216149039e-06
-7.287514273297e-04 -7.287514273297e-04 0.000000000000e+00 6.631229543865e-06
-5.725763223703e-04 -8.569210236252e-04 0.000000000000e+00 6.631244963396e-06
-3.943974304468e-04 -9.521596255497e-04 0.000000000000e+00 6.631261815196e-06
-2.010620664518e-04 -1.010807267042e-03 0.000000000000e+00 6.631279451713e-06
-1.893200135959e-19 -1.030610152128e-03 0.000000000000e+00 6.631297195156e-06
2.010620664518e-04 -1.010807267042e-03 0.000000000000e+00 6.631314363548e-06
3.943974304468e-04 -9.521596255497e-04 0.000000000000e+00 6.631330296946e-06
5.725763223703e-04 -8.569210236252e-04 0.000000000000e+00 6.631344382835e-06
7.287514273297e-04 -7.287514273297e-04 0.000000000000e+00 6.631356079690e-06
8.569210236252e-04 -5.725763223703e-04 0.000000000000e+00 6.631364937827e-06
9.521596255497e-04 -3.943974304468e-04 0.000000000000e+00 6.631370616704e-06
1.010807267042e-03 -2.010620664518e-04 0.000000000000e+00 6.631372898032e-06
8.244881217027e-03 0.000000000000e+00 0.000000000000e+00 6.631645047622e-06
8.086458136333e-03 1.608496531615e-03 0.000000000000e+00 6.631626210598e-06
7.617277004398e-03 3.155179443574e-03 0.000000000000e+00 6.631594152467e-06
6.855368189002e-03 4.580610578963e-03 0.000000000000e+00 6.631550107962e-06
5.830011418637e-03 5.830011418637e-03 0.000000000000e+00 6.631495772508e-06
4.580610578963e-03 6.855368189002e-03 0.000000000000e+00 6.631433236640e-06
3.155179443574e-03 7.617277004398e-03 0.000000000000e+00 6.631364905291e-06
1.608496531615e-03 8.086458136333e-03 0.000000000000e+00 6.631293405108e-06
5.048533695891e-19 8.244881217027e-03 0.000000000000e+00 6.631221483408e-06
-1.608496531615e-03 8.086458136333e-03 0.000000000000e+00 6.631151902658e-06
-3.155179443574e-03 7.617277004398e-03 0.000000000000e+00 6.631087334533e-06
-4.580610578963e-03 6.855368189002e-03 0.000000000000e+00 6.631030257593e-06
-5.830011418637e-03 5.830011418637e-03 0.000000000000e+00 6.630982862454e-06
-6.855368189002e-03 4.580610578963e-03 0.000000000000e+00 6.630946968031e-06
-7.617277004398e-03 3.155179443574e-03 0.000000000000e+00 6.630923952011e-06
-8.086458136333e-03 1.608496531615e-03 0.000000000000e+00 6.630914698173e-06
-8.244881217027e-03 1.009706739178e-18 0.000000000000e+00 6.630919562532e-06
-8.086458136333e-03 -1.608496531615e-03 0.000000000000e+00 6.630938359598e-06
-7.617277004398e-03 -3.155179443574e-03 0.000000000000e+00 6.630970369283e-06
-6.855368189002e-03 -4.580610578963e-03 0.000000000000e+00 6.631014364230e-06
-5.830011418637e-03 -5.830011418637e-03 0.000000000000e+00 6.631068656558e-06
-4.580610578963e-03 -6.855368189002e-03 0.000000000000e+00 6.631131162299e-06
-3.155179443574e-03 -7.617277004398e-03 0.000000000000e+00 6.631199481105e-06
-1.608496531615e-03 -8.086458136333e-03 0.000000000000e+00 6.631270988239e-06
-1.514560108767e-18 -8.244881217027e-03 0.000000000000e+00 6.631342935326e-06
1.608496531615e-03 -8.086458136333e-03 0.000000000000e+00 6.631412556035e-06
3.155179443574e-03 -7.617277004398e-03 0.000000000000e+00 6.631477172606e-06
4.580610578963e-03 -6.855368189002e-03 0.000000000000e+00 6.631534299104e-06
5.830011418637e-03 -5.830011418637e-03 0.000000000000e+00 6.631581737368e-06
6.855368189002e-03 -4.580610578963e-03 0.000000000000e+00 6.631617661919e-06
7.617277004398e-03 -3.155179443574e-03 0.000000000000e+00 6.631640690482e-06
8.086458136333e-03 -1.608496531615e-03 0.000000000000e+00 6.631649937369e-06
2.782647410747e-02 0.000000000000e+00 0.000000000000e+00 6.632273033559e-06
2.729179621012e-02 5.428675794199e-03 0.000000000000e+00 6.632221531943e-06
2.570830988984e-02 1.064873062206e-02 0.000000000000e+00 6.632133921900e-06
2.313686763788e-02 1.545956070400e-02 0.000000000000e+00 6.632013588729e-06
1.967628853790e-02 1.967628853790e-02 0.000000000000e+00 6.631865175681e-06
1.545956070400e-02 2.313686763788e-02 0.000000000000e+00 6.631694402642e-06
1.064873062206e-02 2.570830988984e-02 0.000000000000e+00 6.631507843816e-06
5.428675794199e-03 2.729179621012e-02 0.000000000000e+00 6.631312673335e-06
1.703880122363e-18 2.782647410747e-02 0.000000000000e+00 6.631116388836e-06
-5.428675794199e-03 2.729179621012e-02 0.000000000000e+00 6.630926523732e-06
-1.064873062206e-02 2.570830988984e-02 0.000000000000e+00 6.630750359186e-06
-1.545956070400e-02 2.313686763788e-02 0.000000000000e+00 6.630594646618e-06
-1.967628853790e-02 1.967628853790e-02 0.000000000000e+00 6.630465351063e-06
-2.313686763788e-02 1.545956070400e-02 0.000000000000e+00 6.630367424818e-06
-2.570830988984e-02 1.064873062206e-02 0.000000000000e+00 6.630304619631e-06
-2.729179621012e-02 5.428675794199e-03 0.000000000000e+00 6.630279344277e-06
-2.782647410747e-02 3.407760244726e-18 0.000000000000e+00 6.630292572718e-06
-2.729179621012e-02 -5.428675794199e-03 0.000000000000e+00 6.630343806276e-06
-2.570830988984e-02 -1.064873062206e-02 0.000000000000e+00 6.630431091321e-06
-2.313686763788e-02 -1.545956070400e-02 0.000000000000e+00 6.630551092033e-06
-1.967628853790e-02 -1.967628853790e-02 0.000000000000e+00 6.630699215774e-06
-1.545956070400e-02 -2.313686763788e-02 0.000000000000e+00 6.630869786704e-06
-1.064873062206e-02 -2.570830988984e-02 0.000000000000e+00 6.631056261387e-06
-5.428675794199e-03 -2.729179621012e-02 0.000000000000e+00 6.631251478501e-06
-5.111640367090e-18 -2.782647410747e-02 0.000000000000e+00 6.631447933310e-06
5.428675794199e-03 -2.729179621012e-02 0.000000000000e+00 6.631638066473e-06
1.064873062206e-02 -2.570830988984e-02 0.000000000000e+00 6.631814556017e-06
1.545956070400e-02 -2.313686763788e-02 0.000000000000e+00 6.631970601044e-06
1.967628853790e-02 -1.967628853790e-02 0.000000000000e+00 6.632100185906e-06
2.313686763788e-02 -1.545956070400e-02 0.000000000000e+00 6.632198314260e-06
2.570830988984e-02 -1.064873062206e-02 0.000000000000e+00 6.632261203590e-06
2.729179621012e-02 -5.428675794199e-03 0.000000000000e+00 6.632286432311e-06
6.595904973622e-02 0.000000000000e+00 0.000000000000e+00 6.633432250806e-06
6.469166509066e-02 1.286797225292e-02 0.000000000000e+00 6.633320259198e-06
6.093821603518e-02 2.524143554859e-02 0.000000000000e+00 6.633129897557e-06
5.484294551202e-02 3.664488463170e-02 0.000000000000e+00 6.632868563447e-06
4.664009134910e-02 4.664009134910e-02 0.000000000000e+00 6.632546383702e-06
3.664488463170e-02 5.484294551202e-02 0.000000000000e+00 6.632175812491e-06
2.524143554859e-02 6.093821603518e-02 0.000000000000e+00 6.631771141613e-06
1.286797225292e-02 6.469166509066e-02 0.000000000000e+00 6.631347943528e-06
4.038826956713e-18 6.595904973622e-02 0.000000000000e+00 6.630922469703e-06
-1.286797225292e-02 6.469166509066e-02 0.000000000000e+00 6.630511027879e-06
-2.524143554859e-02 6.093821603518e-02 0.000000000000e+00 6.630129361908e-06
-3.664488463170e-02 5.484294551202e-02 0.000000000000e+00 6.629792057014e-06
-4.664009134910e-02 4.664009134910e-02 0.000000000000e+00 6.629511991757e-06
-5.484294551202e-02 3.664488463170e-02 0.000000000000e+00 6.629299855869e-06
-6.093821603518e-02 2.524143554859e-02 0.000000000000e+00 6.629163750571e-06
-6.469166509066e-02 1.286797225292e-02 0.000000000000e+00 6.629108885012e-06
-6.595904973622e-02 8.077653913426e-18 0.000000000000e+00 6.629137379345e-06
-6.469166509066e-02 -1.286797225292e-02 0.000000000000e+00 6.629248181475e-06
-6.093821603518e-02 -2.524143554859e-02 0.000000000000e+00 6.629437100978e-06
-5.484294551202e-02 -3.664488463170e-02 0.000000000000e+00 6.629696959842e-06
-4.664009134910e-02 -4.664009134910e-02 0.000000000000e+00 6.630017855825e-06
-3.664488463170e-02 -5.484294551202e-02 0.000000000000e+00 6.630387530200e-06
-2.524143554859e-02 -6.093821603518e-02 0.000000000000e+00 6.630791827703e-06
-1.286797225292e-02 -6.469166509066e-02 0.000000000000e+00 6.631215232716e-06
-1.211648087014e-17 -6.595904973622e-02 0.000000000000e+00 6.631641462270e-06
1.286797225292e-02 -6.469166509066e-02 0.000000000000e+00 6.632054093572e-06
2.524143554859e-02 -6.093821603518e-02 0.000000000000e+00 6.632437201681e-06
3.664488463170e-02 -5.484294551202e-02 0.000000000000e+00 6.632775981821e-06
4.664009134910e-02 -4.664009134910e-02 0.000000000000e+00 6.633057330841e-06
5.484294551202e-02 -3.664488463170e-02 0.000000000000e+00 6.633270363565e-06
6.093821603518e-02 -2.524143554859e-02 0.000000000000e+00 6.633406842239e-06
6.469166509066e-02 -1.286797225292e-02 0.000000000000e+00 6.633461500869e-06
1.288262690160e-01 0.000000000000e+00 0.000000000000e+00 6.635302322034e-06
1.263509083802e-01 2.513275830648e-02 0.000000000000e+00 6.635092230024e-06
1.190199531937e-01 4.929967880585e-02 0.000000000000e+00 6.634735555595e-06
1.071151279532e-01 7.157204029629e-02 0.000000000000e+00 6.634246282424e-06
9.109392841621e-02 9.109392841621e-02 0.000000000000e+00 6.633643495964e-06
7.157204029629e-02 1.071151279532e-01 0.000000000000e+00 6.632950606967e-06
4.929967880585e-02 1.190199531937e-01 0.000000000000e+00 6.632194414449e-06
2.513275830648e-02 1.263509083802e-01 0.000000000000e+00 6.631404049770e-06
7.888333899830e-18 1.288262690160e-01 0.000000000000e+00 6.630609846346e-06
-2.513275830648e-02 1.263509083802e-01 0.000000000000e+00 6.629842180043e-06
-4.929967880585e-02 1.190199531937e-01 0.000000000000e+00 6.629130323890e-06
-7.157204029629e-02 1.071151279532e-01 0.000000000000e+00 6.628501357761e-06
-9.109392841621e-02 9.109392841621e-02 0.000000000000e+00 6.627979169700e-06
-1.071151279532e-01 7.157204029629e-02 0.000000000000e+00 6.627583580886e-06
-1.190199531937e-01 4.929967880585e-02 0.000000000000e+00 6.627329621360e-06
-1.263509083802e-01 2.513275830648e-02 0.000000000000e+00 6.627226978659e-06
-1.288262690160e-01 1.577666779966e-17 0.000000000000e+00 6.627279636543e-06
-1.263509083802e-01 -2.513275830648e-02 0.000000000000e+00 6.627485716015e-06
-1.190199531937e-01 -4.929967880585e-02 0.000000000000e+00 6.627837525591e-06
-1.071151279532e-01 -7.157204029629e-02 0.000000000000e+00 6.628321822224e-06
-9.109392841621e-02 -9.109392841621e-02 0.000000000000e+00 6.628920278094e-06
-7.157204029629e-02 -1.071151279532e-01 0.000000000000e+00 6.629610141738e-06
-4.929967880585e-02 -1.190199531937e-01 0.000000000000e+00 6.630365074724e-06
-2.513275830648e-02 -1.263509083802e-01 0.000000000000e+00 6.631156137442e-06
-2.366500169949e-17 -1.288262690160e-01 0.000000000000e+00 6.631952890208e-06
2.513275830648e-02 -1.263509083802e-01 0.000000000000e+00 6.632724569042e-06
4.929967880585e-02 -1.190199531937e-01 0.000000000000e+00 6.633441290047e-06
7.157204029629e-02 -1.071151279532e-01 0.000000000000e+00 6.634075232719e-06
9.109392841621e-02 -9.109392841621e-02 0.000000000000e+00 6.634601751378e-06
1.071151279532e-01 -7.157204029629e-02 0.000000000000e+00 6.635000365551e-06
1.190199531937e-01 -4.929967880585e-02 0.000000000000e+00 6.635255584611e-06
1.263509083802e-01 -2.513275830648e-02 0.000000000000e+00 6.635357529268e-06
2.226117928597e-01 0.000000000000e+00 0.000000000000e+00 6.638065425637e-06
2.183343696810e-01 4.342940635359e-02 0.000000000000e+00 6.637709237042e-06
2.056664791187e-01 8.518984497651e-02 0.000000000000e+00 6.637105602083e-06
1.850949411031e-01 1.236764856320e-01 0.000000000000e+00 6.636278488044e-06
1.574103083032e-01 1.574103083032e-01 0.000000000000e+00 6.635260466818e-06
1.236764856320e-01 1.850949411031e-01 0.000000000000e+00 6.634091343657e-06
8.518984497651e-02 2.056664791187e-01 0.000000000000e+00 6.632816523826e-06
4.342940635359e-02 2.183343696810e-01 0.000000000000e+00 6.631485195558e-06
1.363104097891e-17 2.226117928597e-01 0.000000000000e+00 6.630148410005e-06
-4.342940635359e-02 2.183343696810e-01 0.000000000000e+00 6.628857136384e-06
-8.518984497651e-02 2.056664791187e-01 0.000000000000e+00 6.627660364439e-06
-1.236764856320e-01 1.850949411031e-01 0.000000000000e+00 6.626603317872e-06
-1.574103083032e-01 1.574103083032e-01 0.000000000000e+00 6.625725832876e-06
-1.850949411031e-01 1.236764856320e-01 0.000000000000e+00 6.625060946485e-06
-2.056664791187e-01 8.518984497651e-02 0.000000000000e+00 6.624633730966e-06
-2.183343696810e-01 4.342940635359e-02 0.000000000000e+00 6.624460403270e-06
-2.226117928597e-01 2.726208195781e-17 0.000000000000e+00 6.624547732639e-06
-2.183343696810e-01 -4.342940635359e-02 0.000000000000e+00 6.624892764354e-06
-2.056664791187e-01 -8.518984497651e-02 0.000000000000e+00 6.625482872576e-06
-1.850949411031e-01 -1.236764856320e-01 0.000000000000e+00 6.626296149342e-06
-1.574103083032e-01 -1.574103083032e-01 0.000000000000e+00 6.627302129354e-06
-1.236764856320e-01 -1.850949411031e-01 0.000000000000e+00 6.628462840511e-06
-8.518984497651e-02 -2.056664791187e-01 0.000000000000e+00 6.629734158189e-06
-4.342940635359e-02 -2.183343696810e-01 0.000000000000e+00 6.631067427323e-06
-4.089312293672e-17 -2.226117928597e-01 0.000000000000e+00 6.632411301290e-06
4.342940635359e-02 -2.183343696810e-01 0.000000000000e+00 6.633713731740e-06
8.518984497651e-02 -2.056664791187e-01 0.000000000000e+00 6.634924030413e-06
1.236764856320e-01 -1.850949411031e-01 0.000000000000e+00 6.635994914286e-06
1.574103083032e-01 -1.574103083032e-01 0.000000000000e+00 6.636884440558e-06
1.850949411031e-01 -1.236764856320e-01 0.000000000000e+00 6.637557739003e-06
2.056664791187e-01 -8.518984497651e-02 0.000000000000e+00 6.637988456686e-06
2.183343696810e-01 -4.342940635359e-02 0.000000000000e+00 6.638159843480e-06
3.534992821800e-01 0.000000000000e+00 0.000000000000e+00 6.641907724264e-06
3.467068925953e-01 6.896428879297e-02 0.000000000000e+00 6.641346131547e-06
3.265907515636e-01 1.352783186432e-01 0.000000000000e+00 6.640396684430e-06
2.939239111035e-01 1.963936785730e-01 0.000000000000e+00 6.639097726433e-06
2.499617395741e-01 2.499617395741e-01 0.000000000000e+00 6.637501070604e-06
1.963936785730e-01 2.939239111035e-01 0.000000000000e+00 6.635669720631e-06
1.352783186432e-01 3.265907515636e-01 0.000000000000e+00 6.633675200530e-06
6.896428879297e-02 3.467068925953e-01 0.000000000000e+00 6.631594633007e-06
2.164558822113e-17 3.534992821800e-01 0.000000000000e+00 6.629507704586e-06
-6.896428879297e-02 3.467068925953e-01 0.000000000000e+00 6.627493644581e-06
-1.352783186432e-01 3.265907515636e-01 0.000000000000e+00 6.625628327586e-06
-1.963936785730e-01 2.939239111035e-01 0.000000000000e+00 6.623981588589e-06
-2.499617395741e-01 2.499617395741e-01 0.000000000000e+00 6.622614819121e-06
-2.939239111035e-01 1.963936785730e-01 0.000000000000e+00 6.621578894729e-06
-3.265907515636e-01 1.352783186432e-01 0.000000000000e+00 6.620912470178e-06
-3.467068925953e-01 6.896428879297e-02 0.000000000000e+00 6.620640670031e-06
-3.534992821800e-01 4.329117644227e-17 0.000000000000e+00 6.620774198038e-06
-3.467068925953e-01 -6.896428879297e-02 0.000000000000e+00 6.621308887841e-06
-3.265907515636e-01 -1.352783186432e-01 0.000000000000e+00 6.622225717556e-06
-2.939239111035e-01 -1.963936785730e-01 0.000000000000e+00 6.623491309379e-06
-2.499617395741e-01 -2.499617395741e-01 0.000000000000e+00 6.625058929917e-06
-1.963936785730e-01 -2.939239111035e-01 0.000000000000e+00 6.626869995769e-06
-1.352783186432e-01 -3.265907515636e-01 0.000000000000e+00 6.628856070931e-06
-6.896428879297e-02 -3.467068925953e-01 0.000000000000e+00 6.630941318349e-06
-6.493676466340e-17 -3.534992821800e-01 0.000000000000e+00 6.633045339071e-06
6.896428879297e-02 -3.467068925953e-01 0.000000000000e+00 6.635086301709e-06
1.352783186432e-01 -3.265907515636e-01 0.000000000000e+00 6.636984236047e-06
1.963936785730e-01 -2.939239111035e-01 0.000000000000e+00 6.638664341416e-06
2.499617395741e-01 -2.499617395741e-01 0.000000000000e+00 6.640060146512e-06
2.939239111035e-01 -1.963936785730e-01 0.000000000000e+00 6.641116355307e-06
3.265907515636e-01 -1.352783186432e-01 0.000000000000e+00 6.641791224857e-06
3.467068925953e-01 -6.896428879297e-02 0.000000000000e+00 6.642058344911e-06
5.276723978897e-01 0.000000000000e+00 0.000000000000e+00 6.647021121249e-06
5.175333207253e-01 1.029437780233e-01 0.000000000000e+00 6.646182182887e-06
4.875057282815e-01 2.019314843888e-01 0.000000000000e+00 6.644768272531e-06
4.387435640961e-01 2.931590770536e-01 0.000000000000e+00 6.642837742511e-06
3.731207307928e-01 3.731207307928e-01 0.000000000000e+00 6.640468876242e-06
2.931590770536e-01 4.387435640961e-01 0.000000000000e+00 6.637756258834e-06
2.019314843888e-01 4.875057282815e-01 0.000000000000e+00 6.634806605885e-06
1.029437780233e-01 5.175333207253e-01 0.000000000000e+00 6.631734290955e-06
3.231061565370e-17 5.276723978897e-01 0.000000000000e+00 6.628656798542e-06
-1.029437780233e-01 5.175333207253e-01 0.000000000000e+00 6.625690299192e-06
-2.019314843888e-01 4.875057282815e-01 0.000000000000e+00 6.622945502683e-06
-2.931590770536e-01 4.387435640961e-01 0.000000000000e+00 6.620523900834e-06
-3.731207307928e-01 3.731207307928e-01 0.000000000000e+00 6.618514469873e-06
-4.387435640961e-01 2.931590770536e-01 0.000000000000e+00 6.616990868940e-06
-4.875057282815e-01 2.019314843888e-01 0.000000000000e+00 6.616009149657e-06
-5.175333207253e-01 1.029437780233e-01 0.000000000000e+00 6.615605983226e-06
-5.276723978897e-01 6.462123130741e-17 0.000000000000e+00 6.615797414919e-06
-5.175333207253e-01 -1.029437780233e-01 0.000000000000e+00 6.616578167898e-06
-4.875057282815e-01 -2.019314843888e-01 0.000000000000e+00 6.617921533728e-06
-4.387435640961e-01 -2.931590770536e-01 0.000000000000e+00 6.619779899901e-06
-3.731207307928e-01 -3.731207307928e-01 0.000000000000e+00 6.622085969100e-06
-2.931590770536e-01 -4.387435640961e-01 0.000000000000e+00 6.624754716166e-06
-2.019314843888e-01 -4.875057282815e-01 0.000000000000e+00 6.627686104086e-06
-1.029437780233e-01 -5.175333207253e-01 0.000000000000e+00 6.630768539927e-06
-9.693184696111e-17 -5.276723978897e-01 0.000000000000e+00 6.633882998568e-06
1.029437780233e-01 -5.175333207253e-01 0.000000000000e+00 6.636907682023e-06
2.019314843888e-01 -4.875057282815e-01 0.000000000000e+00 6.639723022789e-06
2.931590770536e-01 -4.387435640961e-01 0.000000000000e+00 6.642216789382e-06
3.731207307928e-01 -3.731207307928e-01 0.000000000000e+00 6.644289018951e-06
4.387435640961e-01 -2.931590770536e-01 0.000000000000e+00 6.645856491504e-06
4.875057282815e-01 -2.019314843888e-01 0.000000000000e+00 6.646856476085e-06
5.175333207253e-01 -1.029437780233e-01 0.000000000000e+00 6.647249520708e-06
7.513148009016e-01 0.000000000000e+00 0.000000000000e+00 6.653605301355e-06
7.368784976734e-01 1.465742464434e-01 0.000000000000e+00 6.652402652704e-06
6.941243670258e-01 2.875157267957e-01 0.000000000000e+00 6.650383674625e-06
6.246954262228e-01 4.174081390080e-01 0.000000000000e+00 6.647633932121e-06
5.312597905233e-01 5.312597905233e-01 0.000000000000e+00 6.644267215737e-06
4.174081390080e-01 6.246954262228e-01 0.000000000000e+00 6.640419939000e-06
2.875157267957e-01 6.941243670258e-01 0.000000000000e+00 6.636244837345e-06
1.465742464434e-01 7.368784976734e-01 0.000000000000e+00 6.631904367774e-06
4.600476330381e-17 7.513148009016e-01 0.000000000000e+00 6.627564169644e-06
-1.465742464434e-01 7.368784976734e-01 0.000000000000e+00 6.623386879599e-06
-2.875157267957e-01 6.941243670258e-01 0.000000000000e+00 6.619526509774e-06
-4.174081390080e-01 6.246954262228e-01 0.000000000000e+00 6.616123511212e-06
-5.312597905233e-01 5.312597905233e-01 0.000000000000e+00 6.613300566271e-06
-6.246954262228e-01 4.174081390080e-01 0.000000000000e+00 6.611159094958e-06
-6.941243670258e-01 2.875157267957e-01 0.000000000000e+00 6.609776427276e-06
-7.368784976734e-01 1.465742464434e-01 0.000000000000e+00 6.609203589168e-06
-7.513148009016e-01 9.200952660761e-17 0.000000000000e+00 6.609463671145e-06
-7.368784976734e-01 -1.465742464434e-01 0.000000000000e+00 6.610550789250e-06
-6.941243670258e-01 -2.875157267957e-01 0.000000000000e+00 6.612429697331e-06
-6.246954262228e-01 -4.174081390080e-01 0.000000000000e+00 6.615036154996e-06
-5.312597905233e-01 -5.312597905233e-01 0.000000000000e+00 6.618278184769e-06
-4.174081390080e-01 -6.246954262228e-01 0.000000000000e+00 6.622038354241e-06
-2.875157267957e-01 -6.941243670258e-01 0.000000000000e+00 6.626177188200e-06
-1.465742464434e-01 -7.368784976734e-01 0.000000000000e+00 6.630537750848e-06
-1.380142899114e-16 -7.513148009016e-01 0.000000000000e+00 6.634951344589e-06
1.465742464434e-01 -7.368784976734e-01 0.000000000000e+00 6.639244160250e-06
2.875157267957e-01 -6.941243670258e-01 0.000000000000e+00 6.643244599035e-06
4.174081390080e-01 -6.246954262228e-01 0.000000000000e+00 6.646790885898e-06
5.312597905233e-01 -5.312597905233e-01 0.000000000000e+00 6.649738523386e-06
6.246954262228e-01 -4.174081390080e-01 0.000000000000e+00 6.651967106895e-06
6.941243670258e-01 -2.875157267957e-01 0.000000000000e+00 6.653386043311e-06
7.368784976734e-01 -1.465742464434e-01 0.000000000000e+00 6.653938784878e-06
1.030610152128e+00 0.000000000000e+00 0.000000000000e+00 6.661870058431e-06
1.010807267042e+00 2.010620664518e-01 0.000000000000e+00 6.660200587375e-06
9.521596255497e-01 3.943974304468e-01 0.000000000000e+00 6.657411193872e-06
8.569210236252e-01 5.725763223703e-01 0.000000000000e+00 6.653623861739e-06
7.287514273297e-01 7.287514273297e-01 0.000000000000e+00 6.648999162643e-06
5.725763223703e-01 8.569210236252e-01 0.000000000000e+00 6.643727814160e-06
3.943974304468e-01 9.521596255497e-01 0.000000000000e+00 6.638021402565e-06
2.010620664518e-01 1.010807267042e+00 0.000000000000e+00 6.632102913034e-06
6.310667119864e-17 1.030610152128e+00 0.000000000000e+00 6.626197623543e-06
-2.010620664518e-01 1.010807267042e+00 0.000000000000e+00 6.620524785650e-06
-3.943974304468e-01 9.521596255497e-01 0.000000000000e+00 6.615290357787e-06
-5.725763223703e-01 8.569210236252e-01 0.000000000000e+00 6.610680897869e-06
-7.287514273297e-01 7.287514273297e-01 0.000000000000e+00 6.606858583872e-06
-8.569210236252e-01 5.725763223703e-01 0.000000000000e+00 6.603957231369e-06
-9.521596255497e-01 3.943974304468e-01 0.000000000000e+00 6.602079127709e-06
-1.010807267042e+00 2.010620664518e-01 0.000000000000e+00 6.601292507913e-06
-1.030610152128e+00 1.262133423973e-16 0.000000000000e+00 6.601629553343e-06
-1.010807267042e+00 -2.010620664518e-01 0.000000000000e+00 6.603084888318e-06
-9.521596255497e-01 -3.943974304468e-01 0.000000000000e+00 6.605614662960e-06
-8.569210236252e-01 -5.725763223703e-01 0.000000000000e+00 6.609136418831e-06
-7.287514273297e-01 -7.287514273297e-01 0.000000000000e+00 6.613530013303e-06
-5.725763223703e-01 -8.569210236252e-01 0.000000000000e+00 6.618639908038e-06
-3.943974304468e-01 -9.521596255497e-01 0.000000000000e+00 6.624279093017e-06
-2.010620664518e-01 -1.010807267042e+00 0.000000000000e+00 6.630234816945e-06
-1.893200135959e-16 -1.030610152128e+00 0.000000000000e+00 6.636276135785e-06
2.010620664518e-01 -1.010807267042e+00 0.000000000000e+00 6.642163093093e-06
3.943974304468e-01 -9.521596255497e-01 0.000000000000e+00 6.647657136309e-06
5.725763223703e-01 -8.569210236252e-01 0.000000000000e+00 6.652532184194e-06
7.287514273297e-01 -7.287514273297e-01 0.000000000000e+00 6.656585622874e-06
8.569210236252e-01 -5.725763223703e-01 0.000000000000e+00 6.659648445791e-06
9.521596255497e-01 -3.943974304468e-01 0.000000000000e+00 6.661593779577e-06
1.010807267042e+00 -2.010620664518e-01 0.000000000000e+00 6.662343153271e-06
1.371742112483e+00 0.000000000000e+00 0.000000000000e+00 6.672037904619e-06
1.345384472432e+00 2.676136104474e-01 0.000000000000e+00 6.669778824964e-06
1.267324461607e+00 5.249429799247e-01 0.000000000000e+00 6.666025426595e-06
1.140561882445e+00 7.620990850749e-01 0.000000000000e+00 6.660947864150e-06
9.699681497758e-01 9.699681497758e-01 0.000000000000e+00 6.654767537727e-06
7.620990850749e-01 1.140561882445e+00 0.000000000000e+00 6.647744623241e-06
5.249429799247e-01 1.267324461607e+00 0.000000000000e+00 6.640164692916e-06
2.676136104474e-01 1.345384472432e+00 0.000000000000e+00 6.632325430286e-06
8.399497936539e-17 1.371742112483e+00 0.000000000000e+00 6.624524275209e-06
-2.676136104474e-01 1.345384472432e+00 0.000000000000e+00 6.617047593414e-06
-5.249429799247e-01 1.267324461607e+00 0.000000000000e+00 6.610161689675e-06
-7.620990850749e-01 1.140561882445e+00 0.000000000000e+00 6.604105712482e-06
-9.699681497758e-01 9.699681497758e-01 0.000000000000e+00 6.599086266500e-06
-1.140561882445e+00 7.620990850749e-01 0.000000000000e+00 6.595273386395e-06
-1.267324461607e+00 5.249429799247e-01 0.000000000000e+00 6.592797451862e-06
-1.345384472432e+00 2.676136104474e-01 0.000000000000e+00 6.591746646794e-06
-1.371742112483e+00 1.679899587308e-16 0.000000000000e+00 6.592164679708e-06
-1.345384472432e+00 -2.676136104474e-01 0.000000000000e+00 6.594048667503e-06
-1.267324461607e+00 -5.249429799247e-01 0.000000000000e+00 6.597347307243e-06
-1.140561882445e+00 -7.620990850749e-01 0.000000000000e+00 6.601959679472e-06
-9.699681497758e-01 -9.699681497758e-01 0.000000000000e+00 6.607735197400e-06
-7.620990850749e-01 -1.140561882445e+00 0.000000000000e+00 6.614475300360e-06
-5.249429799247e-01 -1.267324461607e+00 0.000000000000e+00 6.621937460670e-06
-2.676136104474e-01 -1.345384472432e+00 0.000000000000e+00 6.629841921912e-06
-2.519849380962e-16 -1.371742112483e+00 0.000000000000e+00 6.637881326017e-06
2.676136104474e-01 -1.345384472432e+00 0.000000000000e+00 6.645733049177e-06
5.249429799247e-01 -1.267324461607e+00 0.000000000000e+00 6.653073700916e-06
7.620990850749e-01 -1.140561882445e+00 0.000000000000e+00 6.659594903785e-06
9.699681497758e-01 -9.699681497758e-01 0.000000000000e+00 6.665019219042e-06
1.140561882445e+00 -7.620990850749e-01 0.000000000000e+00 6.669114961169e-06
1.267324461607e+00 -5.249429799247e-01 0.000000000000e+00 6.671708676347e-06
1.345384472432e+00 -2.676136104474e-01 0.000000000000e+00 6.672694247342e-06
1.780894342878e+00 0.000000000000e+00 0.000000000000e+00 6.684346948609e-06
1.746674957448e+00 3.474352508287e-01 0.000000000000e+00 6.681352207060e-06
1.645331832950e+00 6.815187598121e-01 0.000000000000e+00 6.676408699492e-06
1.480759528824e+00 9.894118850559e-01 0.000000000000e+00 6.669749718121e-06
1.259282466426e+00 1.259282466426e+00 0.000000000000e+00 6.661674962464e-06
9.894118850559e-01 1.480759528824e+00 0.000000000000e+00 6.652532437976e-06
6.815187598121e-01 1.645331832950e+00 0.000000000000e+00 6.642699496413e-06
3.474352508287e-01 1.746674957448e+00 0.000000000000e+00 6.632564542898e-06
1.090483278312e-16 1.780894342878e+00 0.000000000000e+00 6.622510631217e-06
-3.474352508287e-01 1.746674957448e+00 0.000000000000e+00 6.612901760493e-06
-6.815187598121e-01 1.645331832950e+00 0.000000000000e+00 6.604072233386e-06
-9.894118850559e-01 1.480759528824e+00 0.000000000000e+00 6.596318997480e-06
-1.259282466426e+00 1.259282466426e+00 0.000000000000e+00 6.589896521423e-06
-1.480759528824e+00 9.894118850559e-01 0.000000000000e+00 6.585013500535e-06
-1.645331832950e+00 6.815187598121e-01 0.000000000000e+00 6.581830575496e-06
-1.746674957448e+00 3.474352508287e-01 0.000000000000e+00 6.580458297380e-06
-1.780894342878e+00 2.180966556625e-16 0.000000000000e+00 6.580954776378e-06
-1.746674957448e+00 -3.474352508287e-01 0.000000000000e+00 6.583322779635e-06
-1.645331832950e+00 -6.815187598121e-01 0.000000000000e+00 6.587506442640e-06
-1.480759528824e+00 -9.894118850559e-01 0.000000000000e+00 6.593388158997e-06
-1.259282466426e+00 -1.259282466426e+00 0.000000000000e+00 6.600786539490e-06
-9.894118850559e-01 -1.480759528824e+00 0.000000000000e+00 6.609456514226e-06
-6.815187598121e-01 -1.645331832950e+00 0.000000000000e+00 6.619092642605e-06
-3.474352508287e-01 -1.746674957448e+00 0.000000000000e+00 6.629336476159e-06
-3.271449834937e-16 -1.780894342878e+00 0.000000000000e+00 6.639788406359e-06
3.474352508287e-01 -1.746674957448e+00 0.000000000000e+00 6.650023875791e-06
6.815187598121e-01 -1.645331832950e+00 0.000000000000e+00 6.659613218076e-06
9.894118850559e-01 -1.480759528824e+00 0.000000000000e+00 6.668143817020e-06
1.259282466426e+00 -1.259282466426e+00 0.000000000000e+00 6.675242836254e-06
1.480759528824e+00 -9.894118850559e-01 0.000000000000e+00 6.680598546477e-06
1.645331832950e+00 -6.815187598121e-01 0.000000000000e+00 6.683978314088e-06
1.746674957448e+00 -3.474352508287e-01 0.000000000000e+00 6.685241614140e-06
2.264250504226e+00 0.000000000000e+00 0.000000000000e+00 6.699054023710e-06
2.220743565690e+00 4.417333599946e-01 0.000000000000e+00 6.695149980727e-06
2.091894697333e+00 8.664911546916e-01 0.000000000000e+00 6.688752640885e-06
1.882655488905e+00 1.257950180248e+00 0.000000000000e+00 6.680177421750e-06